 vasp.5.3.5 31Mar14 (build May 24 2017 15:06:02) complex                        
  
 executed on             LinuxIFC date 2018.01.29  05:26:23
 running on   12 total cores
 distrk:  each k-point on   12 cores,    1 groups
 distr:  one band on NCORES_PER_BAND=   1 cores,   12 groups


--------------------------------------------------------------------------------------------------------


 INCAR:
 POTCAR:    PAW_PBE Mo 08Apr2002                  
 POTCAR:    PAW_PBE S 06Sep2000                   

 ----------------------------------------------------------------------------- 
|                                                                             |
|           W    W    AA    RRRRR   N    N  II  N    N   GGGG   !!!           |
|           W    W   A  A   R    R  NN   N  II  NN   N  G    G  !!!           |
|           W    W  A    A  R    R  N N  N  II  N N  N  G       !!!           |
|           W WW W  AAAAAA  RRRRR   N  N N  II  N  N N  G  GGG   !            |
|           WW  WW  A    A  R   R   N   NN  II  N   NN  G    G                |
|           W    W  A    A  R    R  N    N  II  N    N   GGGG   !!!           |
|                                                                             |
|      For optimal performance we recommend to set                            |
|        NCORE= 4 - approx SQRT( number of cores)                             |
|      NCORE specifies how many cores store one orbital (NPAR=cpu/NCORE).     |
|      This setting can  greatly improve the performance of VASP for DFT.     |
|      The default, NPAR=number of cores might be grossly inefficient         |
|      on modern multi-core architectures or massively parallel machines.     |
|      Do your own testing !!!!                                               |
|      Unfortunately you need to use the default for GW and RPA calculations. |
|      (for HF NCORE is supported but not extensively tested yet)             |
|                                                                             |
 ----------------------------------------------------------------------------- 

 POTCAR:    PAW_PBE Mo 08Apr2002                  
   VRHFIN =Mo: 4p5s4d                                                           
   LEXCH  = PE                                                                  
   EATOM  =   217.5176 eV,   15.9871 Ry                                         
                                                                                
   TITEL  = PAW_PBE Mo 08Apr2002                                                
   LULTRA =        F    use ultrasoft PP ?                                      
   IUNSCR =        1    unscreen: 0-lin 1-nonlin 2-no                           
   RPACOR =    2.200    partial core radius                                     
   POMASS =   95.940; ZVAL   =    6.000    mass and valenz                      
   RCORE  =    2.750    outmost cutoff radius                                   
   RWIGS  =    2.750; RWIGS  =    1.455    wigner-seitz radius (au A)           
   ENMAX  =  224.584; ENMIN  =  168.438 eV                                      
   RCLOC  =    2.111    cutoff for local pot                                    
   LCOR   =        T    correct aug charges                                     
   LPAW   =        T    paw PP                                                  
   EAUG   =  345.278                                                            
   DEXC   =    0.000                                                            
   RMAX   =    2.821    core radius for proj-oper                               
   RAUG   =    1.300    factor for augmentation sphere                          
   RDEP   =    2.815    radius for radial grids                                 
   RDEPT  =    2.211    core radius for aug-charge                              
                                                                                
   Atomic configuration                                                         
   12 entries                                                                   
     n  l   j            E        occ.                                          
     1  0  0.50    -19819.0341   2.0000                                         
     2  0  0.50     -2799.0127   2.0000                                         
     2  1  1.50     -2502.0276   6.0000                                         
     3  0  0.50      -476.4448   2.0000                                         
     3  1  1.50      -379.1496   6.0000                                         
     3  2  2.50      -220.9367  10.0000                                         
     4  0  0.50       -64.3378   2.0000                                         
     4  1  1.50       -38.4773   6.0000                                         
     4  2  2.50        -3.7535   5.0000                                         
     5  0  0.50        -4.0862   1.0000                                         
     5  1  0.50        -2.7701   0.0000                                         
     4  3  2.50        -1.3606   0.0000                                         
   Description                                                                  
     l       E           TYP  RCUT    TYP  RCUT                                 
     2     -3.7534765     23  2.500                                             
     2     -5.1140591     23  2.500                                             
     0     -4.0861560     23  2.600                                             
     0     13.6058260     23  2.600                                             
     1      5.4423304     23  2.750                                             
     1     27.2116520     23  2.750                                             
  local pseudopotential read in
  partial core-charges read in
  partial kinetic energy density read in
  atomic valenz-charges read in
  non local Contribution for L=           2  read in
    real space projection operators read in
  non local Contribution for L=           2  read in
    real space projection operators read in
  non local Contribution for L=           0  read in
    real space projection operators read in
  non local Contribution for L=           0  read in
    real space projection operators read in
  non local Contribution for L=           1  read in
    real space projection operators read in
  non local Contribution for L=           1  read in
    real space projection operators read in
    PAW grid and wavefunctions read in
 
   number of l-projection  operators is LMAX  =           6
   number of lm-projection operators is LMMAX =          18
 
 POTCAR:    PAW_PBE S 06Sep2000                   
   VRHFIN =S : s2p4                                                             
   LEXCH  = PE                                                                  
   EATOM  =   276.8230 eV,   20.3459 Ry                                         
                                                                                
   TITEL  = PAW_PBE S 06Sep2000                                                 
   LULTRA =        F    use ultrasoft PP ?                                      
   IUNSCR =        1    unscreen: 0-lin 1-nonlin 2-no                           
   RPACOR =    1.500    partial core radius                                     
   POMASS =   32.066; ZVAL   =    6.000    mass and valenz                      
   RCORE  =    1.900    outmost cutoff radius                                   
   RWIGS  =    2.200; RWIGS  =    1.164    wigner-seitz radius (au A)           
   ENMAX  =  258.689; ENMIN  =  194.016 eV                                      
   ICORE  =        2    local potential                                         
   LCOR   =        T    correct aug charges                                     
   LPAW   =        T    paw PP                                                  
   EAUG   =  335.092                                                            
   DEXC   =    0.000                                                            
   RMAX   =    1.942    core radius for proj-oper                               
   RAUG   =    1.300    factor for augmentation sphere                          
   RDEP   =    1.954    radius for radial grids                                 
   RDEPT  =    1.744    core radius for aug-charge                              
                                                                                
   Atomic configuration                                                         
    6 entries                                                                   
     n  l   j            E        occ.                                          
     1  0  0.50     -2405.8406   2.0000                                         
     2  0  0.50      -211.7007   2.0000                                         
     2  1  1.50      -156.4958   6.0000                                         
     3  0  0.50       -17.2562   2.0000                                         
     3  1  0.50        -7.0085   4.0000                                         
     3  2  1.50        -6.8029   0.0000                                         
   Description                                                                  
     l       E           TYP  RCUT    TYP  RCUT                                 
     0    -17.2561641     23  1.900                                             
     0    -15.8743224     23  1.900                                             
     1     -7.0085400     23  1.900                                             
     1     -2.7779785     23  1.900                                             
     2     -6.8029130     23  1.900                                             
  local pseudopotential read in
  partial core-charges read in
  partial kinetic energy density read in
  atomic valenz-charges read in
  non local Contribution for L=           0  read in
    real space projection operators read in
  non local Contribution for L=           0  read in
    real space projection operators read in
  non local Contribution for L=           1  read in
    real space projection operators read in
  non local Contribution for L=           1  read in
    real space projection operators read in
    PAW grid and wavefunctions read in
 
   number of l-projection  operators is LMAX  =           4
   number of lm-projection operators is LMMAX =           8
 
  PAW_PBE Mo 08Apr2002                  :
 energy of atom  1       EATOM= -217.5176
 kinetic energy error for atom=    0.0005 (will be added to EATOM!!)
  PAW_PBE S 06Sep2000                   :
 energy of atom  2       EATOM= -276.8230
 kinetic energy error for atom=    0.0009 (will be added to EATOM!!)
 
 
 POSCAR: VASP @ Device Studio                    
  positions in direct lattice
  velocities in cartesian coordinates
 exchange correlation table for  LEXCH =        8
   RHO(1)=    0.500       N(1)  =     2000
   RHO(2)=  100.500       N(2)  =     4000
 


--------------------------------------------------------------------------------------------------------


 ion  position               nearest neighbor table
   1  0.667  0.333  0.086-   2 2.41   2 2.41   2 2.41   3 2.41   3 2.41   3 2.41
   2  0.000  0.000  0.001-   1 2.41   1 2.41   1 2.41
   3  0.000  0.000  0.171-   1 2.41   1 2.41   1 2.41
 
  LATTYP: Found a hexagonal cell.
 ALAT       =     3.1832909475
 C/A-ratio  =     5.7716005063
  
  Lattice vectors:
  
 A1 = (   3.1832909475,   0.0000000000,   0.0000000000)
 A2 = (  -1.5916454738,   2.7568108282,   0.0000000000)
 A3 = (   0.0000000000,   0.0000000000,  18.3726836446)


Analysis of symmetry for initial positions (statically):
=====================================================================
 Subroutine PRICEL returns:
 Original cell was already a primitive cell.
 

 Routine SETGRP: Setting up the symmetry group for a 
 hexagonal supercell.


 Subroutine GETGRP returns: Found 12 space group operations
 (whereof  6 operations were pure point group operations)
 out of a pool of 24 trial point group operations.


The static configuration has the point symmetry C_3v.
 The point group associated with its full space group is D_3h.


Analysis of symmetry for dynamics (positions and initial velocities):
=====================================================================
 Subroutine PRICEL returns:
 Original cell was already a primitive cell.
 

 Routine SETGRP: Setting up the symmetry group for a 
 hexagonal supercell.


 Subroutine GETGRP returns: Found 12 space group operations
 (whereof  6 operations were pure point group operations)
 out of a pool of 24 trial point group operations.


The dynamic configuration has the point symmetry C_3v.
 The point group associated with its full space group is D_3h.
 
 
 KPOINTS: res2                                    

Automatic generation of k-mesh.
Space group operators:
 irot       det(A)        alpha          n_x          n_y          n_z        tau_x        tau_y        tau_z
    1     1.000000     0.000000     1.000000     0.000000     0.000000     0.000000     0.000000     0.000000
    2     1.000000   120.000000     0.000000     0.000000    -1.000000     0.000000     0.000000     0.000000
    3     1.000000   120.000000     0.000000     0.000000     1.000000     0.000000     0.000000     0.000000
    4    -1.000000   180.000000     1.000000     0.000000     0.000000     0.000000     0.000000     0.000000
    5    -1.000000   180.000000     0.500000    -0.866025     0.000000     0.000000     0.000000     0.000000
    6    -1.000000   180.000000    -0.500000    -0.866025     0.000000     0.000000     0.000000     0.000000
    7    -1.000000    60.000000     0.000000     0.000000    -1.000000     0.000000     0.000000     0.171888
    8    -1.000000   180.000000     0.000000     0.000000     1.000000     0.000000     0.000000     0.171888
    9    -1.000000    60.000000     0.000000     0.000000     1.000000     0.000000     0.000000     0.171888
   10     1.000000   180.000000     0.866025    -0.500000     0.000000     0.000000     0.000000     0.171888
   11     1.000000   180.000000     0.000000     1.000000     0.000000     0.000000     0.000000     0.171888
   12     1.000000   180.000000     0.866025     0.500000     0.000000     0.000000     0.000000     0.171888
 
 Subroutine IBZKPT returns following result:
 ===========================================
 
 Found     27 irreducible k-points:
 
 Following reciprocal coordinates:
            Coordinates               Weight
  0.000000  0.000000  0.000000      1.000000
  0.066667  0.000000  0.000000      6.000000
  0.133333  0.000000  0.000000      6.000000
  0.200000  0.000000  0.000000      6.000000
  0.266667  0.000000  0.000000      6.000000
  0.333333  0.000000  0.000000      6.000000
  0.400000  0.000000  0.000000      6.000000
  0.466667  0.000000  0.000000      6.000000
  0.066667  0.066667  0.000000      6.000000
  0.133333  0.066667  0.000000     12.000000
  0.200000  0.066667  0.000000     12.000000
  0.266667  0.066667  0.000000     12.000000
  0.333333  0.066667  0.000000     12.000000
  0.400000  0.066667  0.000000     12.000000
  0.466667  0.066667  0.000000      6.000000
  0.133333  0.133333  0.000000      6.000000
  0.200000  0.133333  0.000000     12.000000
  0.266667  0.133333  0.000000     12.000000
  0.333333  0.133333  0.000000     12.000000
  0.400000  0.133333  0.000000     12.000000
  0.200000  0.200000  0.000000      6.000000
  0.266667  0.200000  0.000000     12.000000
  0.333333  0.200000  0.000000     12.000000
  0.400000  0.200000  0.000000      6.000000
  0.266667  0.266667  0.000000      6.000000
  0.333333  0.266667  0.000000     12.000000
  0.333333  0.333333  0.000000      2.000000
 
 Following cartesian coordinates:
            Coordinates               Weight
  0.000000  0.000000  0.000000      1.000000
  0.020943  0.012091  0.000000      6.000000
  0.041885  0.024183  0.000000      6.000000
  0.062828  0.036274  0.000000      6.000000
  0.083771  0.048365  0.000000      6.000000
  0.104713  0.060456  0.000000      6.000000
  0.125656  0.072548  0.000000      6.000000
  0.146599  0.084639  0.000000      6.000000
  0.020943  0.036274  0.000000      6.000000
  0.041885  0.048365  0.000000     12.000000
  0.062828  0.060456  0.000000     12.000000
  0.083771  0.072548  0.000000     12.000000
  0.104713  0.084639  0.000000     12.000000
  0.125656  0.096730  0.000000     12.000000
  0.146599  0.108821  0.000000      6.000000
  0.041885  0.072548  0.000000      6.000000
  0.062828  0.084639  0.000000     12.000000
  0.083771  0.096730  0.000000     12.000000
  0.104713  0.108821  0.000000     12.000000
  0.125656  0.120913  0.000000     12.000000
  0.062828  0.108821  0.000000      6.000000
  0.083771  0.120913  0.000000     12.000000
  0.104713  0.133004  0.000000     12.000000
  0.125656  0.145095  0.000000      6.000000
  0.083771  0.145095  0.000000      6.000000
  0.104713  0.157186  0.000000     12.000000
  0.104713  0.181369  0.000000      2.000000
 
 TETIRR: Found    118 inequivalent tetrahedra from     1350
 
 Subroutine IBZKPT_HF returns following result:
 ==============================================
 
 Found    225 k-points in 1st BZ
 the following    225 k-points will be used (e.g. in the exchange kernel)
 Following reciprocal coordinates:   # in IRBZ
  0.000000  0.000000  0.000000       1 t-inv F
  0.066667  0.000000  0.000000       2 t-inv F
  0.133333  0.000000  0.000000       3 t-inv F
  0.200000  0.000000  0.000000       4 t-inv F
  0.266667  0.000000  0.000000       5 t-inv F
  0.333333  0.000000  0.000000       6 t-inv F
  0.400000  0.000000  0.000000       7 t-inv F
  0.466667  0.000000  0.000000       8 t-inv F
  0.066667  0.066667  0.000000       9 t-inv F
  0.133333  0.066667  0.000000      10 t-inv F
  0.200000  0.066667  0.000000      11 t-inv F
  0.266667  0.066667  0.000000      12 t-inv F
  0.333333  0.066667  0.000000      13 t-inv F
  0.400000  0.066667  0.000000      14 t-inv F
  0.466667  0.066667  0.000000      15 t-inv F
  0.133333  0.133333  0.000000      16 t-inv F
  0.200000  0.133333  0.000000      17 t-inv F
  0.266667  0.133333  0.000000      18 t-inv F
  0.333333  0.133333  0.000000      19 t-inv F
  0.400000  0.133333  0.000000      20 t-inv F
  0.200000  0.200000  0.000000      21 t-inv F
  0.266667  0.200000  0.000000      22 t-inv F
  0.333333  0.200000  0.000000      23 t-inv F
  0.400000  0.200000  0.000000      24 t-inv F
  0.266667  0.266667  0.000000      25 t-inv F
  0.333333  0.266667  0.000000      26 t-inv F
  0.333333  0.333333  0.000000      27 t-inv F
 -0.066667  0.066667  0.000000       2 t-inv F
  0.000000 -0.066667  0.000000       2 t-inv F
 -0.133333  0.133333  0.000000       3 t-inv F
  0.000000 -0.133333  0.000000       3 t-inv F
 -0.200000  0.200000  0.000000       4 t-inv F
  0.000000 -0.200000  0.000000       4 t-inv F
 -0.266667  0.266667  0.000000       5 t-inv F
  0.000000 -0.266667  0.000000       5 t-inv F
 -0.333333  0.333333  0.000000       6 t-inv F
  0.000000 -0.333333  0.000000       6 t-inv F
 -0.400000  0.400000  0.000000       7 t-inv F
  0.000000 -0.400000  0.000000       7 t-inv F
 -0.466667  0.466667  0.000000       8 t-inv F
  0.000000 -0.466667  0.000000       8 t-inv F
 -0.133333  0.066667  0.000000       9 t-inv F
  0.066667 -0.133333  0.000000       9 t-inv F
 -0.066667  0.133333  0.000000       9 t-inv F
  0.133333 -0.066667  0.000000       9 t-inv F
 -0.066667 -0.066667  0.000000       9 t-inv F
 -0.200000  0.133333  0.000000      10 t-inv F
  0.066667 -0.200000  0.000000      10 t-inv F
 -0.133333  0.200000  0.000000      10 t-inv F
  0.200000 -0.066667  0.000000      10 t-inv F
 -0.066667 -0.133333  0.000000      10 t-inv F
 -0.266667  0.200000  0.000000      11 t-inv F
  0.066667 -0.266667  0.000000      11 t-inv F
 -0.200000  0.266667  0.000000      11 t-inv F
  0.266667 -0.066667  0.000000      11 t-inv F
 -0.066667 -0.200000  0.000000      11 t-inv F
 -0.333333  0.266667  0.000000      12 t-inv F
  0.066667 -0.333333  0.000000      12 t-inv F
 -0.266667  0.333333  0.000000      12 t-inv F
  0.333333 -0.066667  0.000000      12 t-inv F
 -0.066667 -0.266667  0.000000      12 t-inv F
 -0.400000  0.333333  0.000000      13 t-inv F
  0.066667 -0.400000  0.000000      13 t-inv F
 -0.333333  0.400000  0.000000      13 t-inv F
  0.400000 -0.066667  0.000000      13 t-inv F
 -0.066667 -0.333333  0.000000      13 t-inv F
 -0.466667  0.400000  0.000000      14 t-inv F
  0.066667 -0.466667  0.000000      14 t-inv F
 -0.400000  0.466667  0.000000      14 t-inv F
  0.466667 -0.066667  0.000000      14 t-inv F
 -0.066667 -0.400000  0.000000      14 t-inv F
 -0.533333  0.466667  0.000000      15 t-inv F
  0.066667 -0.533333  0.000000      15 t-inv F
 -0.466667  0.533333  0.000000      15 t-inv F
  0.533333 -0.066667  0.000000      15 t-inv F
 -0.066667 -0.466667  0.000000      15 t-inv F
 -0.266667  0.133333  0.000000      16 t-inv F
  0.133333 -0.266667  0.000000      16 t-inv F
 -0.133333  0.266667  0.000000      16 t-inv F
  0.266667 -0.133333  0.000000      16 t-inv F
 -0.133333 -0.133333  0.000000      16 t-inv F
 -0.333333  0.200000  0.000000      17 t-inv F
  0.133333 -0.333333  0.000000      17 t-inv F
 -0.200000  0.333333  0.000000      17 t-inv F
  0.333333 -0.133333  0.000000      17 t-inv F
 -0.133333 -0.200000  0.000000      17 t-inv F
 -0.400000  0.266667  0.000000      18 t-inv F
  0.133333 -0.400000  0.000000      18 t-inv F
 -0.266667  0.400000  0.000000      18 t-inv F
  0.400000 -0.133333  0.000000      18 t-inv F
 -0.133333 -0.266667  0.000000      18 t-inv F
 -0.466667  0.333333  0.000000      19 t-inv F
  0.133333 -0.466667  0.000000      19 t-inv F
 -0.333333  0.466667  0.000000      19 t-inv F
  0.466667 -0.133333  0.000000      19 t-inv F
 -0.133333 -0.333333  0.000000      19 t-inv F
 -0.533333  0.400000  0.000000      20 t-inv F
  0.133333 -0.533333  0.000000      20 t-inv F
 -0.400000  0.533333  0.000000      20 t-inv F
  0.533333 -0.133333  0.000000      20 t-inv F
 -0.133333 -0.400000  0.000000      20 t-inv F
 -0.400000  0.200000  0.000000      21 t-inv F
  0.200000 -0.400000  0.000000      21 t-inv F
 -0.200000  0.400000  0.000000      21 t-inv F
  0.400000 -0.200000  0.000000      21 t-inv F
 -0.200000 -0.200000  0.000000      21 t-inv F
 -0.466667  0.266667  0.000000      22 t-inv F
  0.200000 -0.466667  0.000000      22 t-inv F
 -0.266667  0.466667  0.000000      22 t-inv F
  0.466667 -0.200000  0.000000      22 t-inv F
 -0.200000 -0.266667  0.000000      22 t-inv F
 -0.533333  0.333333  0.000000      23 t-inv F
  0.200000 -0.533333  0.000000      23 t-inv F
 -0.333333  0.533333  0.000000      23 t-inv F
  0.533333 -0.200000  0.000000      23 t-inv F
 -0.200000 -0.333333  0.000000      23 t-inv F
 -0.600000  0.400000  0.000000      24 t-inv F
  0.200000 -0.600000  0.000000      24 t-inv F
 -0.400000  0.600000  0.000000      24 t-inv F
  0.600000 -0.200000  0.000000      24 t-inv F
 -0.200000 -0.400000  0.000000      24 t-inv F
 -0.533333  0.266667  0.000000      25 t-inv F
  0.266667 -0.533333  0.000000      25 t-inv F
 -0.266667  0.533333  0.000000      25 t-inv F
  0.533333 -0.266667  0.000000      25 t-inv F
 -0.266667 -0.266667  0.000000      25 t-inv F
 -0.600000  0.333333  0.000000      26 t-inv F
  0.266667 -0.600000  0.000000      26 t-inv F
 -0.333333  0.600000  0.000000      26 t-inv F
  0.600000 -0.266667  0.000000      26 t-inv F
 -0.266667 -0.333333  0.000000      26 t-inv F
 -0.333333  0.666667  0.000000      27 t-inv F
 -0.066667  0.000000  0.000000       2 t-inv T
  0.066667 -0.066667  0.000000       2 t-inv T
  0.000000  0.066667  0.000000       2 t-inv T
 -0.133333  0.000000  0.000000       3 t-inv T
  0.133333 -0.133333  0.000000       3 t-inv T
  0.000000  0.133333  0.000000       3 t-inv T
 -0.200000  0.000000  0.000000       4 t-inv T
  0.200000 -0.200000  0.000000       4 t-inv T
  0.000000  0.200000  0.000000       4 t-inv T
 -0.266667  0.000000  0.000000       5 t-inv T
  0.266667 -0.266667  0.000000       5 t-inv T
  0.000000  0.266667  0.000000       5 t-inv T
 -0.333333  0.000000  0.000000       6 t-inv T
  0.333333 -0.333333  0.000000       6 t-inv T
  0.000000  0.333333  0.000000       6 t-inv T
 -0.400000  0.000000  0.000000       7 t-inv T
  0.400000 -0.400000  0.000000       7 t-inv T
  0.000000  0.400000  0.000000       7 t-inv T
 -0.466667  0.000000  0.000000       8 t-inv T
  0.466667 -0.466667  0.000000       8 t-inv T
  0.000000  0.466667  0.000000       8 t-inv T
 -0.133333 -0.066667  0.000000      10 t-inv T
  0.200000 -0.133333  0.000000      10 t-inv T
 -0.066667  0.200000  0.000000      10 t-inv T
  0.133333 -0.200000  0.000000      10 t-inv T
 -0.200000  0.066667  0.000000      10 t-inv T
  0.066667  0.133333  0.000000      10 t-inv T
 -0.200000 -0.066667  0.000000      11 t-inv T
  0.266667 -0.200000  0.000000      11 t-inv T
 -0.066667  0.266667  0.000000      11 t-inv T
  0.200000 -0.266667  0.000000      11 t-inv T
 -0.266667  0.066667  0.000000      11 t-inv T
  0.066667  0.200000  0.000000      11 t-inv T
 -0.266667 -0.066667  0.000000      12 t-inv T
  0.333333 -0.266667  0.000000      12 t-inv T
 -0.066667  0.333333  0.000000      12 t-inv T
  0.266667 -0.333333  0.000000      12 t-inv T
 -0.333333  0.066667  0.000000      12 t-inv T
  0.066667  0.266667  0.000000      12 t-inv T
 -0.333333 -0.066667  0.000000      13 t-inv T
  0.400000 -0.333333  0.000000      13 t-inv T
 -0.066667  0.400000  0.000000      13 t-inv T
  0.333333 -0.400000  0.000000      13 t-inv T
 -0.400000  0.066667  0.000000      13 t-inv T
  0.066667  0.333333  0.000000      13 t-inv T
 -0.400000 -0.066667  0.000000      14 t-inv T
  0.466667 -0.400000  0.000000      14 t-inv T
 -0.066667  0.466667  0.000000      14 t-inv T
  0.400000 -0.466667  0.000000      14 t-inv T
 -0.466667  0.066667  0.000000      14 t-inv T
  0.066667  0.400000  0.000000      14 t-inv T
 -0.200000 -0.133333  0.000000      17 t-inv T
  0.333333 -0.200000  0.000000      17 t-inv T
 -0.133333  0.333333  0.000000      17 t-inv T
  0.200000 -0.333333  0.000000      17 t-inv T
 -0.333333  0.133333  0.000000      17 t-inv T
  0.133333  0.200000  0.000000      17 t-inv T
 -0.266667 -0.133333  0.000000      18 t-inv T
  0.400000 -0.266667  0.000000      18 t-inv T
 -0.133333  0.400000  0.000000      18 t-inv T
  0.266667 -0.400000  0.000000      18 t-inv T
 -0.400000  0.133333  0.000000      18 t-inv T
  0.133333  0.266667  0.000000      18 t-inv T
 -0.333333 -0.133333  0.000000      19 t-inv T
  0.466667 -0.333333  0.000000      19 t-inv T
 -0.133333  0.466667  0.000000      19 t-inv T
  0.333333 -0.466667  0.000000      19 t-inv T
 -0.466667  0.133333  0.000000      19 t-inv T
  0.133333  0.333333  0.000000      19 t-inv T
 -0.400000 -0.133333  0.000000      20 t-inv T
  0.533333 -0.400000  0.000000      20 t-inv T
 -0.133333  0.533333  0.000000      20 t-inv T
  0.400000 -0.533333  0.000000      20 t-inv T
 -0.533333  0.133333  0.000000      20 t-inv T
  0.133333  0.400000  0.000000      20 t-inv T
 -0.266667 -0.200000  0.000000      22 t-inv T
  0.466667 -0.266667  0.000000      22 t-inv T
 -0.200000  0.466667  0.000000      22 t-inv T
  0.266667 -0.466667  0.000000      22 t-inv T
 -0.466667  0.200000  0.000000      22 t-inv T
  0.200000  0.266667  0.000000      22 t-inv T
 -0.333333 -0.200000  0.000000      23 t-inv T
  0.533333 -0.333333  0.000000      23 t-inv T
 -0.200000  0.533333  0.000000      23 t-inv T
  0.333333 -0.533333  0.000000      23 t-inv T
 -0.533333  0.200000  0.000000      23 t-inv T
  0.200000  0.333333  0.000000      23 t-inv T
 -0.333333 -0.266667  0.000000      26 t-inv T
  0.600000 -0.333333  0.000000      26 t-inv T
 -0.266667  0.600000  0.000000      26 t-inv T
  0.333333 -0.600000  0.000000      26 t-inv T
 -0.600000  0.266667  0.000000      26 t-inv T
  0.266667  0.333333  0.000000      26 t-inv T


--------------------------------------------------------------------------------------------------------




 Dimension of arrays:
   k-points           NKPTS =     27   k-points in BZ     NKDIM =     27   number of bands    NBANDS=     24
   number of dos      NEDOS =    301   number of ions     NIONS =      3
   non local maximal  LDIM  =      6   non local SUM 2l+1 LMDIM =     18
   total plane-waves  NPLWV = 117600
   max r-space proj   IRMAX =      1   max aug-charges    IRDMAX=  47023
   dimension x,y,z NGX =    28 NGY =   28 NGZ =  150
   dimension x,y,z NGXF=    56 NGYF=   56 NGZF=  300
   support grid    NGXF=    56 NGYF=   56 NGZF=  300
   ions per type =               1   2
 NGX,Y,Z   is equivalent  to a cutoff of  14.62, 14.62, 13.57 a.u.
 NGXF,Y,Z  is equivalent  to a cutoff of  29.25, 29.25, 27.15 a.u.


 I would recommend the setting:
   dimension x,y,z NGX =    25 NGY =   25 NGZ =  147
 SYSTEM =  tis3                                    
 POSCAR =  VASP @ Device Studio                    

 Startparameter for this run:
   NWRITE =      2    write-flag & timer
   PREC   = a         normal or accurate (medium, high low for compatibility)
   ISTART =      0    job   : 0-new  1-cont  2-samecut
   ICHARG =      2    charge: 1-file 2-atom 10-const
   ISPIN  =      1    spin polarized calculation?
   LNONCOLLINEAR =      F non collinear calculations
   LSORBIT =      F    spin-orbit coupling
   INIWAV =      1    electr: 0-lowe 1-rand  2-diag
   LASPH  =      F    aspherical Exc in radial PAW
   METAGGA=      F    non-selfconsistent MetaGGA calc.

 Electronic Relaxation 1
   ENCUT  =  600.0 eV  44.10 Ry    6.64 a.u.   6.36  6.36 36.69*2*pi/ulx,y,z
   ENINI  =  600.0     initial cutoff
   ENAUG  =  345.3 eV  augmentation charge cutoff
   NELM   =     60;   NELMIN=  2; NELMDL= -5     # of ELM steps 
   EDIFF  = 0.1E-04   stopping-criterion for ELM
   LREAL  =      F    real-space projection
   NLSPLINE    = F    spline interpolate recip. space projectors
   LCOMPAT=      F    compatible to vasp.4.4
   GGA_COMPAT  = T    GGA compatible to vasp.4.4-vasp.4.6
   LMAXPAW     = -100 max onsite density
   LMAXMIX     =    2 max onsite mixed and CHGCAR
   VOSKOWN=      0    Vosko Wilk Nusair interpolation
   ROPT   =    0.00000   0.00000
 Ionic relaxation
   EDIFFG = -.1E-02   stopping-criterion for IOM
   NSW    =     73    number of steps for IOM
   NBLOCK =      1;   KBLOCK =      1    inner block; outer block 
   IBRION =      6    ionic relax: 0-MD 1-quasi-New 2-CG
   NFREE  =      4    steps in history (QN), initial steepest desc. (CG)
   ISIF   =      3    stress and relaxation
   IWAVPR =     11    prediction:  0-non 1-charg 2-wave 3-comb
   ISYM   =      2    0-nonsym 1-usesym 2-fastsym
   LCORR  =      T    Harris-Foulkes like correction to forces

   POTIM  = 0.5000    time-step for ionic-motion
   TEIN   =    0.0    initial temperature
   TEBEG  =    0.0;   TEEND  =   0.0 temperature during run
   SMASS  =  -3.00    Nose mass-parameter (am)
   estimated Nose-frequenzy (Omega)   =  0.10E-29 period in steps =****** mass=  -0.232E-27a.u.
   SCALEE = 1.0000    scale energy and forces
   NPACO  =    256;   APACO  = 16.0  distance and # of slots for P.C.
   PSTRESS=    0.0 pullay stress

  Mass of Ions in am
   POMASS =  95.94 32.07
  Ionic Valenz
   ZVAL   =   6.00  6.00
  Atomic Wigner-Seitz radii
   RWIGS  =  -1.00 -1.00
  virtual crystal weights 
   VCA    =   1.00  1.00
   NELECT =      18.0000    total number of electrons
   NUPDOWN=      -1.0000    fix difference up-down

 DOS related values:
   EMIN   =  10.00;   EMAX   =-10.00  energy-range for DOS
   EFERMI =   0.00
   ISMEAR =    -5;   SIGMA  =   0.20  broadening in eV -4-tet -1-fermi 0-gaus

 Electronic relaxation 2 (details)
   IALGO  =     68    algorithm
   LDIAG  =      T    sub-space diagonalisation (order eigenvalues)
   LSUBROT=      F    optimize rotation matrix (better conditioning)
   TURBO    =      0    0=normal 1=particle mesh
   IRESTART =      0    0=no restart 2=restart with 2 vectors
   NREBOOT  =      0    no. of reboots
   NMIN     =      0    reboot dimension
   EREF     =   0.00    reference energy to select bands
   IMIX   =      4    mixing-type and parameters
     AMIX     =   0.40;   BMIX     =  1.00
     AMIX_MAG =   1.60;   BMIX_MAG =  1.00
     AMIN     =   0.10
     WC   =   100.;   INIMIX=   1;  MIXPRE=   1;  MAXMIX= -45

 Intra band minimization:
   WEIMIN = 0.0010     energy-eigenvalue tresh-hold
   EBREAK =  0.10E-06  absolut break condition
   DEPER  =   0.30     relativ break condition  

   TIME   =   0.40     timestep for ELM

  volume/ion in A,a.u.               =      53.74       362.69
  Fermi-wavevector in a.u.,A,eV,Ry     =   0.788280  1.489633  8.454456  0.621385
  Thomas-Fermi vector in A             =   1.893189
 
 Write flags
   LWAVE  =      F    write WAVECAR
   LCHARG =      F    write CHGCAR
   LVTOT  =      F    write LOCPOT, total local potential
   LVHAR  =      F    write LOCPOT, Hartree potential only
   LELF   =      F    write electronic localiz. function (ELF)
   LORBIT =      0    0 simple, 1 ext, 2 COOP (PROOUT)


 Dipole corrections
   LMONO  =      F    monopole corrections only (constant potential shift)
   LDIPOL =      F    correct potential (dipole corrections)
   IDIPOL =      0    1-x, 2-y, 3-z, 4-all directions 
   EPSILON=  1.0000000 bulk dielectric constant

 Exchange correlation treatment:
   GGA     =    --    GGA type
   LEXCH   =     8    internal setting for exchange type
   VOSKOWN=      0    Vosko Wilk Nusair interpolation
   LHFCALC =     F    Hartree Fock is set to
   LHFONE  =     F    Hartree Fock one center treatment
   AEXX    =    0.0000 exact exchange contribution

 Linear response parameters
   LEPSILON=     F    determine dielectric tensor
   LRPA    =     F    only Hartree local field effects (RPA)
   LNABLA  =     F    use nabla operator in PAW spheres
   LVEL    =     F    velocity operator in full k-point grid
   LINTERFAST=   F  fast interpolation
   KINTER  =     0    interpolate to denser k-point grid
   CSHIFT  =0.1000    complex shift for real part using Kramers Kronig
   OMEGAMAX=  -1.0    maximum frequency
   DEG_THRESHOLD= 0.2000000E-02 threshold for treating states as degnerate
   RTIME   =    0.100 relaxation time in fs

 Orbital magnetization related:
   ORBITALMAG=     F  switch on orbital magnetization
   LCHIMAG   =     F  perturbation theory with respect to B field
   DQ        =  0.001000  dq finite difference perturbation B field



--------------------------------------------------------------------------------------------------------


 finite differences with symmetry
 charge density and potential will be updated during run
 non-spin polarized calculation
 RMM-DIIS sequential band-by-band and
  variant of blocked Davidson during initial phase
 perform sub-space diagonalisation
    before iterative eigenvector-optimisation
 modified Broyden-mixing scheme, WC =      100.0
 initial mixing is a Kerker type mixing with AMIX =  0.4000 and BMIX =      1.0000
 Hartree-type preconditioning will be used
 using additional bands           15
 reciprocal scheme for non local part
 use partial core corrections
 calculate Harris-corrections to forces 
   (improved forces if not selfconsistent)
 use gradient corrections 
 use of overlap-Matrix (Vanderbilt PP)
 Fermi weights with tetrahedron method with Bloechl corrections


--------------------------------------------------------------------------------------------------------


  energy-cutoff  :      600.00
  volume of cell :      161.23
      direct lattice vectors                 reciprocal lattice vectors
     3.183290948  0.000000000  0.000000000     0.314140308  0.181368992  0.000000000
    -1.591645474  2.756810828  0.000000000     0.000000000  0.362737983  0.000000000
     0.000000000  0.000000000 18.372683645     0.000000000  0.000000000  0.054428630

  length of vectors
     3.183290948  3.183290948 18.372683645     0.362737983  0.362737983  0.054428630


 
 k-points in units of 2pi/SCALE and weight: res2                                    
   0.00000000  0.00000000  0.00000000       0.004
   0.02094269  0.01209127  0.00000000       0.027
   0.04188537  0.02418253  0.00000000       0.027
   0.06282806  0.03627380  0.00000000       0.027
   0.08377075  0.04836506  0.00000000       0.027
   0.10471344  0.06045633  0.00000000       0.027
   0.12565612  0.07254760  0.00000000       0.027
   0.14659881  0.08463886  0.00000000       0.027
   0.02094269  0.03627380  0.00000000       0.027
   0.04188537  0.04836506  0.00000000       0.053
   0.06282806  0.06045633  0.00000000       0.053
   0.08377075  0.07254760  0.00000000       0.053
   0.10471344  0.08463886  0.00000000       0.053
   0.12565612  0.09673013  0.00000000       0.053
   0.14659881  0.10882139  0.00000000       0.027
   0.04188537  0.07254760  0.00000000       0.027
   0.06282806  0.08463886  0.00000000       0.053
   0.08377075  0.09673013  0.00000000       0.053
   0.10471344  0.10882139  0.00000000       0.053
   0.12565612  0.12091266  0.00000000       0.053
   0.06282806  0.10882139  0.00000000       0.027
   0.08377075  0.12091266  0.00000000       0.053
   0.10471344  0.13300393  0.00000000       0.053
   0.12565612  0.14509519  0.00000000       0.027
   0.08377075  0.14509519  0.00000000       0.027
   0.10471344  0.15718646  0.00000000       0.053
   0.10471344  0.18136899  0.00000000       0.009
 
 k-points in reciprocal lattice and weights: res2                                    
   0.00000000  0.00000000  0.00000000       0.004
   0.06666667  0.00000000  0.00000000       0.027
   0.13333333  0.00000000  0.00000000       0.027
   0.20000000  0.00000000  0.00000000       0.027
   0.26666667  0.00000000  0.00000000       0.027
   0.33333333  0.00000000  0.00000000       0.027
   0.40000000  0.00000000  0.00000000       0.027
   0.46666667  0.00000000  0.00000000       0.027
   0.06666667  0.06666667  0.00000000       0.027
   0.13333333  0.06666667  0.00000000       0.053
   0.20000000  0.06666667  0.00000000       0.053
   0.26666667  0.06666667  0.00000000       0.053
   0.33333333  0.06666667  0.00000000       0.053
   0.40000000  0.06666667  0.00000000       0.053
   0.46666667  0.06666667  0.00000000       0.027
   0.13333333  0.13333333  0.00000000       0.027
   0.20000000  0.13333333  0.00000000       0.053
   0.26666667  0.13333333  0.00000000       0.053
   0.33333333  0.13333333  0.00000000       0.053
   0.40000000  0.13333333  0.00000000       0.053
   0.20000000  0.20000000  0.00000000       0.027
   0.26666667  0.20000000  0.00000000       0.053
   0.33333333  0.20000000  0.00000000       0.053
   0.40000000  0.20000000  0.00000000       0.027
   0.26666667  0.26666667  0.00000000       0.027
   0.33333333  0.26666667  0.00000000       0.053
   0.33333333  0.33333333  0.00000000       0.009
 
 position of ions in fractional coordinates (direct lattice) 
   0.66666667  0.33333333  0.08594415
   0.00000000  0.00000000  0.00083608
   0.00000000  0.00000000  0.17105310
 
 position of ions in cartesian coordinates  (Angst):
   1.59164547  0.91893694  1.57902471
   0.00000000  0.00000000  0.01536106
   0.00000000  0.00000000  3.14270449
 


--------------------------------------------------------------------------------------------------------


 k-point  1 :   0.0000 0.0000 0.0000  plane waves:    5413
 k-point  2 :   0.0667 0.0000 0.0000  plane waves:    5373
 k-point  3 :   0.1333 0.0000 0.0000  plane waves:    5415
 k-point  4 :   0.2000 0.0000 0.0000  plane waves:    5407
 k-point  5 :   0.2667 0.0000 0.0000  plane waves:    5415
 k-point  6 :   0.3333 0.0000 0.0000  plane waves:    5387
 k-point  7 :   0.4000 0.0000 0.0000  plane waves:    5371
 k-point  8 :   0.4667 0.0000 0.0000  plane waves:    5387
 k-point  9 :   0.0667 0.0667 0.0000  plane waves:    5409
 k-point 10 :   0.1333 0.0667 0.0000  plane waves:    5405
 k-point 11 :   0.2000 0.0667 0.0000  plane waves:    5394
 k-point 12 :   0.2667 0.0667 0.0000  plane waves:    5385
 k-point 13 :   0.3333 0.0667 0.0000  plane waves:    5386
 k-point 14 :   0.4000 0.0667 0.0000  plane waves:    5383
 k-point 15 :   0.4667 0.0667 0.0000  plane waves:    5376
 k-point 16 :   0.1333 0.1333 0.0000  plane waves:    5399
 k-point 17 :   0.2000 0.1333 0.0000  plane waves:    5393
 k-point 18 :   0.2667 0.1333 0.0000  plane waves:    5378
 k-point 19 :   0.3333 0.1333 0.0000  plane waves:    5369
 k-point 20 :   0.4000 0.1333 0.0000  plane waves:    5355
 k-point 21 :   0.2000 0.2000 0.0000  plane waves:    5386
 k-point 22 :   0.2667 0.2000 0.0000  plane waves:    5375
 k-point 23 :   0.3333 0.2000 0.0000  plane waves:    5352
 k-point 24 :   0.4000 0.2000 0.0000  plane waves:    5356
 k-point 25 :   0.2667 0.2667 0.0000  plane waves:    5362
 k-point 26 :   0.3333 0.2667 0.0000  plane waves:    5352
 k-point 27 :   0.3333 0.3333 0.0000  plane waves:    5286

 maximum and minimum number of plane-waves per node :      5415     5286

 maximum number of plane-waves:      5415
 maximum index in each direction: 
   IXMAX=    6   IYMAX=    6   IZMAX=   36
   IXMIN=   -6   IYMIN=   -6   IZMIN=  -36

 NGX is ok and might be reduce to  26
 NGY is ok and might be reduce to  26
 NGZ is ok and might be reduce to 146

 serial   3D FFT for wavefunctions
 parallel 3D FFT for charge:
    minimum data exchange during FFTs selected (reduces bandwidth)


 total amount of memory used by VASP on root node    89920. kBytes
========================================================================

   base      :      30000. kBytes
   nonl-proj :      42437. kBytes
   fftplans  :       3278. kBytes
   grid      :       9442. kBytes
   one-center:         46. kBytes
   wavefun   :       4717. kBytes
 
     INWAV:  cpu time    0.00: real time    0.00
 Broyden mixing: mesh for mixing (old mesh)
   NGX = 13   NGY = 13   NGZ = 73
  (NGX  = 56   NGY  = 56   NGZ  =300)
  gives a total of  12337 points

 initial charge density was supplied:
 charge density of overlapping atoms calculated
 number of electron      18.0000000 magnetization 
 keeping initial charge density in first step


--------------------------------------------------------------------------------------------------------


 Maximum index for augmentation-charges         4057 (set IRDMAX)


--------------------------------------------------------------------------------------------------------


 First call to EWALD:  gamma=   0.326
 Maximum number of real-space cells 5x 5x 1
 Maximum number of reciprocal cells 2x 2x 8

 FEWALD executed in parallel
    FEWALD:  cpu time    0.00: real time    0.00


----------------------------------------- Iteration    1(   1)  ---------------------------------------


    POTLOK:  cpu time    0.09: real time    0.09
    SETDIJ:  cpu time    0.01: real time    0.01
     EDDAV:  cpu time    2.14: real time    2.14
 BZINTS: Fermi energy:  6.616560; 18.000000 electrons
         Band energy: -24.010401;  BLOECHL correction: -0.116101
       DOS:  cpu time    0.01: real time    0.01
    --------------------------------------------
      LOOP:  cpu time    2.24: real time    2.25

 eigenvalue-minimisations  :  1296
 total energy-change (2. order) : 0.9709513E+02  (-0.6788202E+03)
 number of electron      18.0000000 magnetization 
 augmentation part       18.0000000 magnetization 

 Free energy of the ion-electron system (eV)
  ---------------------------------------------------
  alpha Z        PSCENC =        18.38901802
  Ewald energy   TEWEN  =      2035.04200963
  -Hartree energ DENC   =     -2744.75813584
  -exchange      EXHF   =         0.00000000
  -V(xc)+E(xc)   XCENC  =       -36.27553149
  PAW double counting   =       700.55132206     -623.00449337
  entropy T*S    EENTRO =         0.00000000
  eigenvalues    EBANDS =       -24.01040100
  atomic energy  EATOM  =       771.16134613
  ---------------------------------------------------
  free energy    TOTEN  =        97.09513415 eV

  energy without entropy =       97.09513415  energy(sigma->0) =       97.09513415


--------------------------------------------------------------------------------------------------------




----------------------------------------- Iteration    1(   2)  ---------------------------------------


     EDDAV:  cpu time    2.70: real time    2.71
 BZINTS: Fermi energy: -1.527241; 18.000000 electrons
         Band energy:-135.410058;  BLOECHL correction:  0.000000
       DOS:  cpu time    0.00: real time    0.00
    --------------------------------------------
      LOOP:  cpu time    2.71: real time    2.72

 eigenvalue-minimisations  :  1776
 total energy-change (2. order) :-0.1113997E+03  (-0.1004425E+03)
 number of electron      18.0000000 magnetization 
 augmentation part       18.0000000 magnetization 

 Free energy of the ion-electron system (eV)
  ---------------------------------------------------
  alpha Z        PSCENC =        18.38901802
  Ewald energy   TEWEN  =      2035.04200963
  -Hartree energ DENC   =     -2744.75813584
  -exchange      EXHF   =         0.00000000
  -V(xc)+E(xc)   XCENC  =       -36.27553149
  PAW double counting   =       700.55132206     -623.00449337
  entropy T*S    EENTRO =         0.00000000
  eigenvalues    EBANDS =      -135.41005793
  atomic energy  EATOM  =       771.16134613
  ---------------------------------------------------
  free energy    TOTEN  =       -14.30452278 eV

  energy without entropy =      -14.30452278  energy(sigma->0) =      -14.30452278


--------------------------------------------------------------------------------------------------------




----------------------------------------- Iteration    1(   3)  ---------------------------------------


     EDDAV:  cpu time    2.78: real time    2.79
 BZINTS: Fermi energy: -2.028826; 18.000000 electrons
         Band energy:-144.364098;  BLOECHL correction:  0.000000
       DOS:  cpu time    0.00: real time    0.00
    --------------------------------------------
      LOOP:  cpu time    2.79: real time    2.79

 eigenvalue-minimisations  :  1848
 total energy-change (2. order) :-0.8954040E+01  (-0.8866316E+01)
 number of electron      18.0000000 magnetization 
 augmentation part       18.0000000 magnetization 

 Free energy of the ion-electron system (eV)
  ---------------------------------------------------
  alpha Z        PSCENC =        18.38901802
  Ewald energy   TEWEN  =      2035.04200963
  -Hartree energ DENC   =     -2744.75813584
  -exchange      EXHF   =         0.00000000
  -V(xc)+E(xc)   XCENC  =       -36.27553149
  PAW double counting   =       700.55132206     -623.00449337
  entropy T*S    EENTRO =         0.00000000
  eigenvalues    EBANDS =      -144.36409800
  atomic energy  EATOM  =       771.16134613
  ---------------------------------------------------
  free energy    TOTEN  =       -23.25856285 eV

  energy without entropy =      -23.25856285  energy(sigma->0) =      -23.25856285


--------------------------------------------------------------------------------------------------------




----------------------------------------- Iteration    1(   4)  ---------------------------------------


     EDDAV:  cpu time    2.45: real time    2.45
 BZINTS: Fermi energy: -2.043414; 18.000000 electrons
         Band energy:-144.497505;  BLOECHL correction:  0.000000
       DOS:  cpu time    0.00: real time    0.00
    --------------------------------------------
      LOOP:  cpu time    2.45: real time    2.45

 eigenvalue-minimisations  :  1572
 total energy-change (2. order) :-0.1334073E+00  (-0.1333843E+00)
 number of electron      18.0000000 magnetization 
 augmentation part       18.0000000 magnetization 

 Free energy of the ion-electron system (eV)
  ---------------------------------------------------
  alpha Z        PSCENC =        18.38901802
  Ewald energy   TEWEN  =      2035.04200963
  -Hartree energ DENC   =     -2744.75813584
  -exchange      EXHF   =         0.00000000
  -V(xc)+E(xc)   XCENC  =       -36.27553149
  PAW double counting   =       700.55132206     -623.00449337
  entropy T*S    EENTRO =         0.00000000
  eigenvalues    EBANDS =      -144.49750528
  atomic energy  EATOM  =       771.16134613
  ---------------------------------------------------
  free energy    TOTEN  =       -23.39197013 eV

  energy without entropy =      -23.39197013  energy(sigma->0) =      -23.39197013


--------------------------------------------------------------------------------------------------------




----------------------------------------- Iteration    1(   5)  ---------------------------------------


     EDDAV:  cpu time    2.79: real time    2.79
 BZINTS: Fermi energy: -2.044898; 18.000000 electrons
         Band energy:-144.500528;  BLOECHL correction:  0.000000
       DOS:  cpu time    0.00: real time    0.00
    CHARGE:  cpu time    0.12: real time    0.15
    MIXING:  cpu time    0.00: real time    0.00
    --------------------------------------------
      LOOP:  cpu time    2.92: real time    2.96

 eigenvalue-minimisations  :  1848
 total energy-change (2. order) :-0.3023056E-02  (-0.3022901E-02)
 number of electron      18.0000001 magnetization 
 augmentation part       -0.9419318 magnetization 

 Broyden mixing:
  rms(total) = 0.24437E+01    rms(broyden)= 0.24437E+01
  rms(prec ) = 0.24789E+01
  weight for this iteration     100.00

 Free energy of the ion-electron system (eV)
  ---------------------------------------------------
  alpha Z        PSCENC =        18.38901802
  Ewald energy   TEWEN  =      2035.04200963
  -Hartree energ DENC   =     -2744.75813584
  -exchange      EXHF   =         0.00000000
  -V(xc)+E(xc)   XCENC  =       -36.27553149
  PAW double counting   =       700.55132206     -623.00449337
  entropy T*S    EENTRO =         0.00000000
  eigenvalues    EBANDS =      -144.50052834
  atomic energy  EATOM  =       771.16134613
  ---------------------------------------------------
  free energy    TOTEN  =       -23.39499319 eV

  energy without entropy =      -23.39499319  energy(sigma->0) =      -23.39499319


--------------------------------------------------------------------------------------------------------




----------------------------------------- Iteration    1(   6)  ---------------------------------------


    POTLOK:  cpu time    0.09: real time    0.09
    SETDIJ:  cpu time    0.00: real time    0.01
    EDDIAG:  cpu time    0.53: real time    0.53
  RMM-DIIS:  cpu time    2.49: real time    2.49
    ORTHCH:  cpu time    0.03: real time    0.03
 BZINTS: Fermi energy: -3.127801; 18.000000 electrons
         Band energy:-144.672785;  BLOECHL correction:  0.000000
       DOS:  cpu time    0.00: real time    0.00
    CHARGE:  cpu time    0.12: real time    0.12
    MIXING:  cpu time    0.00: real time    0.00
    --------------------------------------------
      LOOP:  cpu time    3.27: real time    3.27

 eigenvalue-minimisations  :  1296
 total energy-change (2. order) : 0.1140552E+01  (-0.2927713E+00)
 number of electron      18.0000001 magnetization 
 augmentation part       -0.3828531 magnetization 

 Broyden mixing:
  rms(total) = 0.94543E+00    rms(broyden)= 0.94543E+00
  rms(prec ) = 0.97717E+00
  weight for this iteration     100.00

 eigenvalues of (default mixing * dielectric matrix)
  average eigenvalue GAMMA=   1.2215
  1.2215

 Free energy of the ion-electron system (eV)
  ---------------------------------------------------
  alpha Z        PSCENC =        18.38901802
  Ewald energy   TEWEN  =      2035.04200963
  -Hartree energ DENC   =     -2743.43223946
  -exchange      EXHF   =         0.00000000
  -V(xc)+E(xc)   XCENC  =       -35.39164699
  PAW double counting   =       999.29144486     -922.64158783
  entropy T*S    EENTRO =         0.00000000
  eigenvalues    EBANDS =      -144.67278505
  atomic energy  EATOM  =       771.16134613
  ---------------------------------------------------
  free energy    TOTEN  =       -22.25444069 eV

  energy without entropy =      -22.25444069  energy(sigma->0) =      -22.25444069


--------------------------------------------------------------------------------------------------------




----------------------------------------- Iteration    1(   7)  ---------------------------------------


    POTLOK:  cpu time    0.08: real time    0.09
    SETDIJ:  cpu time    0.01: real time    0.01
    EDDIAG:  cpu time    0.53: real time    0.53
  RMM-DIIS:  cpu time    2.48: real time    2.48
    ORTHCH:  cpu time    0.03: real time    0.03
 BZINTS: Fermi energy: -2.115708; 18.000000 electrons
         Band energy:-136.414118;  BLOECHL correction:  0.000000
       DOS:  cpu time    0.00: real time    0.00
    CHARGE:  cpu time    0.12: real time    0.12
    MIXING:  cpu time    0.00: real time    0.00
    --------------------------------------------
      LOOP:  cpu time    3.26: real time    3.31

 eigenvalue-minimisations  :  1296
 total energy-change (2. order) : 0.2030822E+00  (-0.6182033E-01)
 number of electron      18.0000001 magnetization 
 augmentation part       -0.7266262 magnetization 

 Broyden mixing:
  rms(total) = 0.68449E+00    rms(broyden)= 0.68449E+00
  rms(prec ) = 0.71062E+00
  weight for this iteration     100.00

 eigenvalues of (default mixing * dielectric matrix)
  average eigenvalue GAMMA=   1.4053
  0.6701  2.1404

 Free energy of the ion-electron system (eV)
  ---------------------------------------------------
  alpha Z        PSCENC =        18.38901802
  Ewald energy   TEWEN  =      2035.04200963
  -Hartree energ DENC   =     -2750.90134991
  -exchange      EXHF   =         0.00000000
  -V(xc)+E(xc)   XCENC  =       -35.61973660
  PAW double counting   =      1304.04221276    -1227.75074084
  entropy T*S    EENTRO =         0.00000000
  eigenvalues    EBANDS =      -136.41411766
  atomic energy  EATOM  =       771.16134613
  ---------------------------------------------------
  free energy    TOTEN  =       -22.05135846 eV

  energy without entropy =      -22.05135846  energy(sigma->0) =      -22.05135846


--------------------------------------------------------------------------------------------------------




----------------------------------------- Iteration    1(   8)  ---------------------------------------


    POTLOK:  cpu time    0.08: real time    0.09
    SETDIJ:  cpu time    0.01: real time    0.01
    EDDIAG:  cpu time    0.53: real time    0.53
  RMM-DIIS:  cpu time    2.48: real time    2.48
    ORTHCH:  cpu time    0.03: real time    0.03
 BZINTS: Fermi energy: -2.593407; 18.000000 electrons
         Band energy:-135.605647;  BLOECHL correction:  0.000000
       DOS:  cpu time    0.00: real time    0.00
    CHARGE:  cpu time    0.12: real time    0.12
    MIXING:  cpu time    0.00: real time    0.00
    --------------------------------------------
      LOOP:  cpu time    3.26: real time    3.26

 eigenvalue-minimisations  :  1296
 total energy-change (2. order) : 0.2404206E+00  (-0.2860789E-01)
 number of electron      18.0000001 magnetization 
 augmentation part       -0.5181616 magnetization 

 Broyden mixing:
  rms(total) = 0.88276E-01    rms(broyden)= 0.88276E-01
  rms(prec ) = 0.95981E-01
  weight for this iteration     100.00

 eigenvalues of (default mixing * dielectric matrix)
  average eigenvalue GAMMA=   1.3786
  2.1038  1.4050  0.6269

 Free energy of the ion-electron system (eV)
  ---------------------------------------------------
  alpha Z        PSCENC =        18.38901802
  Ewald energy   TEWEN  =      2035.04200963
  -Hartree energ DENC   =     -2751.44782775
  -exchange      EXHF   =         0.00000000
  -V(xc)+E(xc)   XCENC  =       -35.20980899
  PAW double counting   =      1567.69685734    -1491.83688480
  entropy T*S    EENTRO =         0.00000000
  eigenvalues    EBANDS =      -135.60564743
  atomic energy  EATOM  =       771.16134613
  ---------------------------------------------------
  free energy    TOTEN  =       -21.81093785 eV

  energy without entropy =      -21.81093785  energy(sigma->0) =      -21.81093785


--------------------------------------------------------------------------------------------------------




----------------------------------------- Iteration    1(   9)  ---------------------------------------


    POTLOK:  cpu time    0.08: real time    0.09
    SETDIJ:  cpu time    0.01: real time    0.01
    EDDIAG:  cpu time    0.53: real time    0.53
  RMM-DIIS:  cpu time    2.48: real time    2.48
    ORTHCH:  cpu time    0.03: real time    0.03
 BZINTS: Fermi energy: -2.438689; 18.000000 electrons
         Band energy:-134.374866;  BLOECHL correction:  0.000000
       DOS:  cpu time    0.00: real time    0.00
    CHARGE:  cpu time    0.12: real time    0.12
    MIXING:  cpu time    0.00: real time    0.00
    --------------------------------------------
      LOOP:  cpu time    3.26: real time    3.26

 eigenvalue-minimisations  :  1296
 total energy-change (2. order) : 0.1183166E-01  (-0.7055342E-03)
 number of electron      18.0000001 magnetization 
 augmentation part       -0.5539601 magnetization 

 Broyden mixing:
  rms(total) = 0.20947E-01    rms(broyden)= 0.20947E-01
  rms(prec ) = 0.23617E-01
  weight for this iteration     100.00

 eigenvalues of (default mixing * dielectric matrix)
  average eigenvalue GAMMA=   1.4848
  0.6175  1.0852  2.1183  2.1183

 Free energy of the ion-electron system (eV)
  ---------------------------------------------------
  alpha Z        PSCENC =        18.38901802
  Ewald energy   TEWEN  =      2035.04200963
  -Hartree energ DENC   =     -2752.61478096
  -exchange      EXHF   =         0.00000000
  -V(xc)+E(xc)   XCENC  =       -35.22075071
  PAW double counting   =      1592.65587196    -1516.83695390
  entropy T*S    EENTRO =         0.00000000
  eigenvalues    EBANDS =      -134.37486637
  atomic energy  EATOM  =       771.16134613
  ---------------------------------------------------
  free energy    TOTEN  =       -21.79910619 eV

  energy without entropy =      -21.79910619  energy(sigma->0) =      -21.79910619


--------------------------------------------------------------------------------------------------------




----------------------------------------- Iteration    1(  10)  ---------------------------------------


    POTLOK:  cpu time    0.08: real time    0.09
    SETDIJ:  cpu time    0.01: real time    0.01
    EDDIAG:  cpu time    0.52: real time    0.53
  RMM-DIIS:  cpu time    2.49: real time    2.49
    ORTHCH:  cpu time    0.03: real time    0.03
 BZINTS: Fermi energy: -2.401196; 18.000000 electrons
         Band energy:-133.406931;  BLOECHL correction:  0.000000
       DOS:  cpu time    0.00: real time    0.00
    CHARGE:  cpu time    0.12: real time    0.12
    MIXING:  cpu time    0.00: real time    0.00
    --------------------------------------------
      LOOP:  cpu time    3.27: real time    3.27

 eigenvalue-minimisations  :  1296
 total energy-change (2. order) : 0.1074768E-02  (-0.1604921E-03)
 number of electron      18.0000001 magnetization 
 augmentation part       -0.5498749 magnetization 

 Broyden mixing:
  rms(total) = 0.10536E-01    rms(broyden)= 0.10536E-01
  rms(prec ) = 0.12611E-01
  weight for this iteration     100.00

 eigenvalues of (default mixing * dielectric matrix)
  average eigenvalue GAMMA=   1.6687
  0.6184  0.9693  2.4854  2.4854  1.7848

 Free energy of the ion-electron system (eV)
  ---------------------------------------------------
  alpha Z        PSCENC =        18.38901802
  Ewald energy   TEWEN  =      2035.04200963
  -Hartree energ DENC   =     -2753.58654862
  -exchange      EXHF   =         0.00000000
  -V(xc)+E(xc)   XCENC  =       -35.18699667
  PAW double counting   =      1604.20665730    -1528.41658601
  entropy T*S    EENTRO =         0.00000000
  eigenvalues    EBANDS =      -133.40693121
  atomic energy  EATOM  =       771.16134613
  ---------------------------------------------------
  free energy    TOTEN  =       -21.79803142 eV

  energy without entropy =      -21.79803142  energy(sigma->0) =      -21.79803142


--------------------------------------------------------------------------------------------------------




----------------------------------------- Iteration    1(  11)  ---------------------------------------


    POTLOK:  cpu time    0.09: real time    0.09
    SETDIJ:  cpu time    0.00: real time    0.01
    EDDIAG:  cpu time    0.52: real time    0.53
  RMM-DIIS:  cpu time    2.48: real time    2.53
    ORTHCH:  cpu time    0.03: real time    0.03
 BZINTS: Fermi energy: -2.354805; 18.000000 electrons
         Band energy:-132.257542;  BLOECHL correction:  0.000000
       DOS:  cpu time    0.00: real time    0.00
    CHARGE:  cpu time    0.12: real time    0.12
    MIXING:  cpu time    0.00: real time    0.00
    --------------------------------------------
      LOOP:  cpu time    3.26: real time    3.31

 eigenvalue-minimisations  :  1296
 total energy-change (2. order) : 0.4015717E-03  (-0.4835812E-04)
 number of electron      18.0000001 magnetization 
 augmentation part       -0.5480279 magnetization 

 Broyden mixing:
  rms(total) = 0.48106E-02    rms(broyden)= 0.48106E-02
  rms(prec ) = 0.61547E-02
  weight for this iteration     100.00

 eigenvalues of (default mixing * dielectric matrix)
  average eigenvalue GAMMA=   1.6066
  2.9441  2.4543  1.6621  0.6185  1.0320  0.9287

 Free energy of the ion-electron system (eV)
  ---------------------------------------------------
  alpha Z        PSCENC =        18.38901802
  Ewald energy   TEWEN  =      2035.04200963
  -Hartree energ DENC   =     -2754.75226723
  -exchange      EXHF   =         0.00000000
  -V(xc)+E(xc)   XCENC  =       -35.16743253
  PAW double counting   =      1601.15093828    -1525.36369991
  entropy T*S    EENTRO =         0.00000000
  eigenvalues    EBANDS =      -132.25754225
  atomic energy  EATOM  =       771.16134613
  ---------------------------------------------------
  free energy    TOTEN  =       -21.79762985 eV

  energy without entropy =      -21.79762985  energy(sigma->0) =      -21.79762985


--------------------------------------------------------------------------------------------------------




----------------------------------------- Iteration    1(  12)  ---------------------------------------


    POTLOK:  cpu time    0.09: real time    0.09
    SETDIJ:  cpu time    0.01: real time    0.01
    EDDIAG:  cpu time    0.53: real time    0.53
  RMM-DIIS:  cpu time    2.51: real time    2.51
    ORTHCH:  cpu time    0.03: real time    0.03
 BZINTS: Fermi energy: -2.263062; 18.000000 electrons
         Band energy:-131.792645;  BLOECHL correction:  0.000000
       DOS:  cpu time    0.00: real time    0.00
    CHARGE:  cpu time    0.12: real time    0.12
    MIXING:  cpu time    0.00: real time    0.00
    --------------------------------------------
      LOOP:  cpu time    3.29: real time    3.29

 eigenvalue-minimisations  :  1296
 total energy-change (2. order) : 0.2969195E-04  (-0.6128646E-05)
 number of electron      18.0000001 magnetization 
 augmentation part       -0.5495459 magnetization 

 Broyden mixing:
  rms(total) = 0.18374E-02    rms(broyden)= 0.18374E-02
  rms(prec ) = 0.30424E-02
  weight for this iteration     100.00

 eigenvalues of (default mixing * dielectric matrix)
  average eigenvalue GAMMA=   1.8553
  4.0086  2.3729  2.3729  1.6596  0.6186  0.9485  1.0060

 Free energy of the ion-electron system (eV)
  ---------------------------------------------------
  alpha Z        PSCENC =        18.38901802
  Ewald energy   TEWEN  =      2035.04200963
  -Hartree energ DENC   =     -2755.22083909
  -exchange      EXHF   =         0.00000000
  -V(xc)+E(xc)   XCENC  =       -35.16378866
  PAW double counting   =      1600.62300773    -1524.83570932
  entropy T*S    EENTRO =         0.00000000
  eigenvalues    EBANDS =      -131.79264460
  atomic energy  EATOM  =       771.16134613
  ---------------------------------------------------
  free energy    TOTEN  =       -21.79760016 eV

  energy without entropy =      -21.79760016  energy(sigma->0) =      -21.79760016


--------------------------------------------------------------------------------------------------------




----------------------------------------- Iteration    1(  13)  ---------------------------------------


    POTLOK:  cpu time    0.09: real time    0.09
    SETDIJ:  cpu time    0.01: real time    0.01
    EDDIAG:  cpu time    0.53: real time    0.53
  RMM-DIIS:  cpu time    2.45: real time    2.45
    ORTHCH:  cpu time    0.03: real time    0.03
 BZINTS: Fermi energy: -2.238895; 18.000000 electrons
         Band energy:-131.110532;  BLOECHL correction:  0.000000
       DOS:  cpu time    0.00: real time    0.00
    CHARGE:  cpu time    0.12: real time    0.12
    MIXING:  cpu time    0.00: real time    0.00
    --------------------------------------------
      LOOP:  cpu time    3.23: real time    3.24

 eigenvalue-minimisations  :  1214
 total energy-change (2. order) :-0.1512776E-03  (-0.4690686E-05)
 number of electron      18.0000001 magnetization 
 augmentation part       -0.5491788 magnetization 

 Broyden mixing:
  rms(total) = 0.96633E-03    rms(broyden)= 0.96633E-03
  rms(prec ) = 0.13921E-02
  weight for this iteration     100.00

 eigenvalues of (default mixing * dielectric matrix)
  average eigenvalue GAMMA=   1.8631
  3.3986  3.3986  2.2693  0.6186  0.9629  1.0516  1.6626  1.5429

 Free energy of the ion-electron system (eV)
  ---------------------------------------------------
  alpha Z        PSCENC =        18.38901802
  Ewald energy   TEWEN  =      2035.04200963
  -Hartree energ DENC   =     -2755.91065950
  -exchange      EXHF   =         0.00000000
  -V(xc)+E(xc)   XCENC  =       -35.15896249
  PAW double counting   =      1599.73957907    -1523.94955045
  entropy T*S    EENTRO =         0.00000000
  eigenvalues    EBANDS =      -131.11053186
  atomic energy  EATOM  =       771.16134613
  ---------------------------------------------------
  free energy    TOTEN  =       -21.79775144 eV

  energy without entropy =      -21.79775144  energy(sigma->0) =      -21.79775144


--------------------------------------------------------------------------------------------------------




----------------------------------------- Iteration    1(  14)  ---------------------------------------


    POTLOK:  cpu time    0.09: real time    0.09
    SETDIJ:  cpu time    0.00: real time    0.01
    EDDIAG:  cpu time    0.53: real time    0.53
  RMM-DIIS:  cpu time    2.17: real time    2.17
    ORTHCH:  cpu time    0.03: real time    0.03
 BZINTS: Fermi energy: -2.226559; 18.000000 electrons
         Band energy:-130.924685;  BLOECHL correction:  0.000000
       DOS:  cpu time    0.00: real time    0.00
    CHARGE:  cpu time    0.12: real time    0.12
    MIXING:  cpu time    0.00: real time    0.00
    --------------------------------------------
      LOOP:  cpu time    2.95: real time    2.96

 eigenvalue-minimisations  :  1051
 total energy-change (2. order) :-0.9755688E-04  (-0.6749283E-06)
 number of electron      18.0000001 magnetization 
 augmentation part       -0.5494477 magnetization 

 Broyden mixing:
  rms(total) = 0.81500E-03    rms(broyden)= 0.81500E-03
  rms(prec ) = 0.10204E-02
  weight for this iteration     100.00

 eigenvalues of (default mixing * dielectric matrix)
  average eigenvalue GAMMA=   2.0295
  5.7875  2.7913  2.2785  2.2785  1.6593  0.6186  0.9981  0.9269  0.9269

 Free energy of the ion-electron system (eV)
  ---------------------------------------------------
  alpha Z        PSCENC =        18.38901802
  Ewald energy   TEWEN  =      2035.04200963
  -Hartree energ DENC   =     -2756.09657919
  -exchange      EXHF   =         0.00000000
  -V(xc)+E(xc)   XCENC  =       -35.15910128
  PAW double counting   =      1599.57448857    -1523.78434637
  entropy T*S    EENTRO =         0.00000000
  eigenvalues    EBANDS =      -130.92468451
  atomic energy  EATOM  =       771.16134613
  ---------------------------------------------------
  free energy    TOTEN  =       -21.79784899 eV

  energy without entropy =      -21.79784899  energy(sigma->0) =      -21.79784899


--------------------------------------------------------------------------------------------------------




----------------------------------------- Iteration    1(  15)  ---------------------------------------


    POTLOK:  cpu time    0.09: real time    0.09
    SETDIJ:  cpu time    0.01: real time    0.01
    EDDIAG:  cpu time    0.53: real time    0.53
  RMM-DIIS:  cpu time    2.12: real time    2.13
    ORTHCH:  cpu time    0.03: real time    0.03
 BZINTS: Fermi energy: -2.212288; 18.000000 electrons
         Band energy:-130.769689;  BLOECHL correction:  0.000000
       DOS:  cpu time    0.00: real time    0.00
    CHARGE:  cpu time    0.12: real time    0.12
    MIXING:  cpu time    0.00: real time    0.00
    --------------------------------------------
      LOOP:  cpu time    2.92: real time    2.92

 eigenvalue-minimisations  :  1029
 total energy-change (2. order) :-0.1416151E-04  (-0.5779182E-06)
 number of electron      18.0000001 magnetization 
 augmentation part       -0.5491589 magnetization 

 Broyden mixing:
  rms(total) = 0.37278E-03    rms(broyden)= 0.37278E-03
  rms(prec ) = 0.54532E-03
  weight for this iteration     100.00

 eigenvalues of (default mixing * dielectric matrix)
  average eigenvalue GAMMA=   2.0821
  6.2075  3.2355  2.4007  2.2405  0.6186  1.4952  1.4952  0.9533  0.9892  1.1857

 Free energy of the ion-electron system (eV)
  ---------------------------------------------------
  alpha Z        PSCENC =        18.38901802
  Ewald energy   TEWEN  =      2035.04200963
  -Hartree energ DENC   =     -2756.25270111
  -exchange      EXHF   =         0.00000000
  -V(xc)+E(xc)   XCENC  =       -35.15767068
  PAW double counting   =      1599.19300234    -1523.40317863
  entropy T*S    EENTRO =         0.00000000
  eigenvalues    EBANDS =      -130.76968886
  atomic energy  EATOM  =       771.16134613
  ---------------------------------------------------
  free energy    TOTEN  =       -21.79786315 eV

  energy without entropy =      -21.79786315  energy(sigma->0) =      -21.79786315


--------------------------------------------------------------------------------------------------------




----------------------------------------- Iteration    1(  16)  ---------------------------------------


    POTLOK:  cpu time    0.09: real time    0.09
    SETDIJ:  cpu time    0.01: real time    0.01
    EDDIAG:  cpu time    0.53: real time    0.53
  RMM-DIIS:  cpu time    1.94: real time    1.94
    ORTHCH:  cpu time    0.03: real time    0.03
 BZINTS: Fermi energy: -2.193493; 18.000000 electrons
         Band energy:-130.716519;  BLOECHL correction:  0.000000
       DOS:  cpu time    0.00: real time    0.00
    CHARGE:  cpu time    0.12: real time    0.12
    MIXING:  cpu time    0.00: real time    0.00
    --------------------------------------------
      LOOP:  cpu time    2.72: real time    2.73

 eigenvalue-minimisations  :  1007
 total energy-change (2. order) :-0.1994058E-04  (-0.3741746E-06)
 number of electron      18.0000001 magnetization 
 augmentation part       -0.5491980 magnetization 

 Broyden mixing:
  rms(total) = 0.42371E-03    rms(broyden)= 0.42371E-03
  rms(prec ) = 0.47376E-03
  weight for this iteration     100.00

 eigenvalues of (default mixing * dielectric matrix)
  average eigenvalue GAMMA=   2.1958
  6.5238  3.8926  2.7784  2.3891  2.3891  1.5514  0.6186  1.1207  0.9950  0.9950
  0.9004

 Free energy of the ion-electron system (eV)
  ---------------------------------------------------
  alpha Z        PSCENC =        18.38901802
  Ewald energy   TEWEN  =      2035.04200963
  -Hartree energ DENC   =     -2756.30538591
  -exchange      EXHF   =         0.00000000
  -V(xc)+E(xc)   XCENC  =       -35.15792891
  PAW double counting   =      1599.47608016    -1523.68650307
  entropy T*S    EENTRO =         0.00000000
  eigenvalues    EBANDS =      -130.71651915
  atomic energy  EATOM  =       771.16134613
  ---------------------------------------------------
  free energy    TOTEN  =       -21.79788310 eV

  energy without entropy =      -21.79788310  energy(sigma->0) =      -21.79788310


--------------------------------------------------------------------------------------------------------




----------------------------------------- Iteration    1(  17)  ---------------------------------------


    POTLOK:  cpu time    0.09: real time    0.09
    SETDIJ:  cpu time    0.01: real time    0.01
    EDDIAG:  cpu time    0.53: real time    0.54
  RMM-DIIS:  cpu time    1.96: real time    1.96
    ORTHCH:  cpu time    0.03: real time    0.03
 BZINTS: Fermi energy: -2.193335; 18.000000 electrons
         Band energy:-130.687983;  BLOECHL correction:  0.000000
       DOS:  cpu time    0.00: real time    0.00
    CHARGE:  cpu time    0.12: real time    0.12
    MIXING:  cpu time    0.00: real time    0.00
    --------------------------------------------
      LOOP:  cpu time    2.74: real time    2.75

 eigenvalue-minimisations  :   905
 total energy-change (2. order) :-0.4180808E-04  (-0.1267119E-06)
 number of electron      18.0000001 magnetization 
 augmentation part       -0.5491948 magnetization 

 Broyden mixing:
  rms(total) = 0.16600E-03    rms(broyden)= 0.16600E-03
  rms(prec ) = 0.18214E-03
  weight for this iteration     100.00

 eigenvalues of (default mixing * dielectric matrix)
  average eigenvalue GAMMA=   2.1682
  6.8206  4.4708  2.6235  2.6235  2.1744  1.5735  0.6186  1.1361  1.1361  0.9556
  0.9556  0.9303

 Free energy of the ion-electron system (eV)
  ---------------------------------------------------
  alpha Z        PSCENC =        18.38901802
  Ewald energy   TEWEN  =      2035.04200963
  -Hartree energ DENC   =     -2756.33411004
  -exchange      EXHF   =         0.00000000
  -V(xc)+E(xc)   XCENC  =       -35.15804054
  PAW double counting   =      1599.44142641    -1523.65159185
  entropy T*S    EENTRO =         0.00000000
  eigenvalues    EBANDS =      -130.68798268
  atomic energy  EATOM  =       771.16134613
  ---------------------------------------------------
  free energy    TOTEN  =       -21.79792490 eV

  energy without entropy =      -21.79792490  energy(sigma->0) =      -21.79792490


--------------------------------------------------------------------------------------------------------




----------------------------------------- Iteration    1(  18)  ---------------------------------------


    POTLOK:  cpu time    0.09: real time    0.09
    SETDIJ:  cpu time    0.01: real time    0.01
    EDDIAG:  cpu time    0.53: real time    0.53
  RMM-DIIS:  cpu time    1.65: real time    1.74
    ORTHCH:  cpu time    0.03: real time    0.03
 BZINTS: Fermi energy: -2.197078; 18.000000 electrons
         Band energy:-130.684773;  BLOECHL correction:  0.000000
       DOS:  cpu time    0.00: real time    0.00
    --------------------------------------------
      LOOP:  cpu time    2.31: real time    2.40

 eigenvalue-minimisations  :   699
 total energy-change (2. order) :-0.8043172E-05  (-0.1009985E-07)
 number of electron      18.0000001 magnetization 
 augmentation part       -0.5491948 magnetization 

 Free energy of the ion-electron system (eV)
  ---------------------------------------------------
  alpha Z        PSCENC =        18.38901802
  Ewald energy   TEWEN  =      2035.04200963
  -Hartree energ DENC   =     -2756.33732937
  -exchange      EXHF   =         0.00000000
  -V(xc)+E(xc)   XCENC  =       -35.15806975
  PAW double counting   =      1599.34198275    -1523.55211700
  entropy T*S    EENTRO =         0.00000000
  eigenvalues    EBANDS =      -130.68477337
  atomic energy  EATOM  =       771.16134613
  ---------------------------------------------------
  free energy    TOTEN  =       -21.79793295 eV

  energy without entropy =      -21.79793295  energy(sigma->0) =      -21.79793295


--------------------------------------------------------------------------------------------------------




 average (electrostatic) potential at core
  the test charge radii are     1.2296  0.9698
  (the norm of the test charge is              1.0000)
       1 -45.6823       2 -93.5394       3 -93.5401
 
 
 
 E-fermi :  -2.1971     XC(G=0):  -4.1442     alpha+bet : -3.9194


 k-point     1 :       0.0000    0.0000    0.0000
  band No.  band energies     occupation 
      1     -16.3157      2.00000
      2     -15.0999      2.00000
      3      -7.8348      2.00000
      4      -4.8530      2.00000
      5      -4.8530      2.00000
      6      -3.9997      2.00000
      7      -3.7392      2.00000
      8      -3.7392      2.00000
      9      -2.2751      2.00000
     10       0.5272      0.00000
     11       0.5272      0.00000
     12       0.7538      0.00000
     13       0.7538      0.00000
     14       3.1383      0.00000
     15       3.4435      0.00000
     16       3.9959      0.00000
     17       4.4955      0.00000
     18       5.6957      0.00000
     19       6.8729      0.00000
     20       6.9748      0.00000
     21       8.7652      0.00000
     22       8.7652      0.00000
     23       9.0589      0.00000
     24      10.0263      0.00000

 k-point     2 :       0.0667    0.0000    0.0000
  band No.  band energies     occupation 
      1     -16.2529      2.00000
      2     -15.0699      2.00000
      3      -7.7605      2.00000
      4      -4.9999      2.00000
      5      -4.7836      2.00000
      6      -4.3665      2.00000
      7      -3.8458      2.00000
      8      -3.4700      2.00000
      9      -2.3061      2.00000
     10       0.4280      0.00000
     11       0.5656      0.00000
     12       0.6411      0.00000
     13       0.6787      0.00000
     14       3.2559      0.00000
     15       3.5305      0.00000
     16       4.1633      0.00000
     17       4.7147      0.00000
     18       5.7778      0.00000
     19       7.0475      0.00000
     20       7.1865      0.00000
     21       8.5274      0.00000
     22       8.9774      0.00000
     23       9.1179      0.00000
     24      10.2957      0.00000

 k-point     3 :       0.1333    0.0000    0.0000
  band No.  band energies     occupation 
      1     -16.0705      2.00000
      2     -14.9829      2.00000
      3      -7.5583      2.00000
      4      -5.3728      2.00000
      5      -4.8721      2.00000
      6      -4.5848      2.00000
      7      -4.1177      2.00000
      8      -3.3025      2.00000
      9      -2.4351      2.00000
     10       0.1967      0.00000
     11       0.3052      0.00000
     12       0.4867      0.00000
     13       0.9262      0.00000
     14       3.5424      0.00000
     15       3.7854      0.00000
     16       4.4951      0.00000
     17       5.3960      0.00000
     18       6.0170      0.00000
     19       7.2419      0.00000
     20       7.8582      0.00000
     21       8.0917      0.00000
     22       9.1391      0.00000
     23       9.5692      0.00000
     24       9.6488      0.00000

 k-point     4 :       0.2000    0.0000    0.0000
  band No.  band energies     occupation 
      1     -15.7861      2.00000
      2     -14.8482      2.00000
      3      -7.3121      2.00000
      4      -5.8098      2.00000
      5      -5.3980      2.00000
      6      -4.4611      2.00000
      7      -4.2850      2.00000
      8      -3.3902      2.00000
      9      -2.7156      2.00000
     10      -0.0546      0.00000
     11       0.2532      0.00000
     12       0.4076      0.00000
     13       1.2687      0.00000
     14       3.9522      0.00000
     15       4.1932      0.00000
     16       4.9136      0.00000
     17       6.1769      0.00000
     18       6.3828      0.00000
     19       7.4513      0.00000
     20       7.7359      0.00000
     21       7.8247      0.00000
     22       9.3652      0.00000
[...]
  external pressure =       -4.98 kB  Pullay stress =        0.00 kB


 VOLUME and BASIS-vectors are now :
 -----------------------------------------------------------------------------
  energy-cutoff  :      600.00
  volume of cell :      161.23
      direct lattice vectors                 reciprocal lattice vectors
     3.183290948  0.000000000  0.000000000     0.314140308  0.181368992  0.000000000
    -1.591645474  2.756810828  0.000000000     0.000000000  0.362737983  0.000000000
     0.000000000  0.000000000 18.372683645     0.000000000  0.000000000  0.054428630

  length of vectors
     3.183290948  3.183290948 18.372683645     0.362737983  0.362737983  0.054428630


 FORCES acting on ions
    electron-ion (+dipol)            ewald-force                    non-local-force                 convergence-correction
 -----------------------------------------------------------------------------------------------
   -.176E-08 0.347E-09 -.625E+00   -.100E-14 0.269E-08 0.488E+00   0.000E+00 0.000E+00 -.297E+00   -.306E-10 0.342E-09 -.791E-03
   0.317E-08 -.166E-08 0.521E+03   -.209E-14 -.131E-08 -.526E+03   -.278E-16 0.000E+00 0.504E+01   -.142E-08 -.101E-09 -.157E-01
   -.213E-10 -.194E-08 -.521E+03   -.223E-14 -.138E-08 0.525E+03   -.278E-16 0.000E+00 -.475E+01   -.478E-09 -.378E-10 -.135E-03
 -----------------------------------------------------------------------------------------------
   0.139E-08 -.326E-08 0.201E-01   -.532E-14 -.105E-13 0.000E+00   -.555E-16 0.000E+00 -.248E-02   -.193E-08 0.203E-09 -.166E-01
 
 
 POSITION                                       TOTAL-FORCE (eV/Angst)
 -----------------------------------------------------------------------------------
      1.59165      0.91894      1.57902         0.000000      0.000000     -0.435299
      0.00000      0.00000     -0.01464         0.000000      0.000000      0.497357
      0.00000      0.00000      3.14270         0.000000      0.000000     -0.062058
 -----------------------------------------------------------------------------------
    total drift:                                0.000000      0.000000      0.000981


--------------------------------------------------------------------------------------------------------



  FREE ENERGIE OF THE ION-ELECTRON SYSTEM (eV)
  ---------------------------------------------------
  free  energy   TOTEN  =       -21.79032075 eV

  energy  without entropy=      -21.79032075  energy(sigma->0) =      -21.79032075
 
 d Force =-0.5652321E-02[-0.746E-02,-0.384E-02]  d Energy =-0.5660685E-02 0.836E-05
 d Force = 0.7890473E+01[ 0.789E+01, 0.789E+01]  d Ewald  = 0.7890501E+01-0.283E-04


--------------------------------------------------------------------------------------------------------


    POTLOK:  cpu time    0.10: real time    0.10


--------------------------------------------------------------------------------------------------------


 Finite differences progress:
  Degree of freedom:  10/ 10
  Displacement:        4/  4
  Total:              40/ 40


--------------------------------------------------------------------------------------------------------



  ELASTIC MODULI  (kBar)
 Direction    XX          YY          ZZ          XY          YZ          ZX
 --------------------------------------------------------------------------------
 XX         865.8694    270.4465    332.3766      0.0000      0.0000      0.0000
 YY         270.7612    867.9953    329.5266      0.0000      0.0000      0.0000
 ZZ         323.1928    323.1928    924.7898      0.0000      0.0000      0.0000
 XY          -0.3144     -0.5493      4.5100    289.8930      0.0000      0.0000
 YZ           0.0291      0.0974     -4.5870      0.0000    440.6690      0.0000
 ZX          -0.3079     -0.4492      2.9672      0.0000      0.0000    441.7733
 --------------------------------------------------------------------------------


  SYMMETRIZED ELASTIC MODULI (kBar)
 Direction    XX          YY          ZZ          XY          YZ          ZX
 --------------------------------------------------------------------------------
 XX         862.7967    274.7395    327.0722      0.0000      0.0000      0.0000
 YY         274.7395    862.7967    327.0722      0.0000      0.0000      0.0000
 ZZ         327.0722    327.0722    924.7898      0.0000      0.0000      0.0000
 XY           0.0000      0.0000      0.0000    294.0286      0.0000      0.0000
 YZ           0.0000      0.0000      0.0000      0.0000    441.2209      0.0000
 ZX           0.0000      0.0000      0.0000      0.0000      0.0000    441.2212
 --------------------------------------------------------------------------------

 INTERNAL STRAIN TENSORS FROM STRAINED CELLS
 ============================================

 INTERNAL STRAIN TENSOR FOR ION    1 for displacements in x,y,z  (eV/Angst):
          X           Y           Z          XY          YZ          ZX
  --------------------------------------------------------------------------------
  x     0.00000     0.00000     0.00000    -6.35720     0.00000     0.00000
  y    -6.39852     6.38991     0.00000    -0.00003     0.00203    -0.00357
  z     0.00000     0.00000     0.00000     0.00000    -0.01247     0.00000

 INTERNAL STRAIN TENSOR FOR ION    2 for displacements in x,y,z  (eV/Angst):
          X           Y           Z          XY          YZ          ZX
  --------------------------------------------------------------------------------
  x     0.00000     0.00000     0.00000     3.17860     0.00000    14.43881
  y     3.19926    -3.19496     0.00000     0.00001    14.43238     0.00178
  z    10.34933    10.35590    29.72352    -0.01981     0.00989    -0.02387

 INTERNAL STRAIN TENSOR FOR ION    3 for displacements in x,y,z  (eV/Angst):
          X           Y           Z          XY          YZ          ZX
  --------------------------------------------------------------------------------
  x     0.00000     0.00000     0.00000     3.17860     0.00000   -14.43881
  y     3.19926    -3.19496     0.00000     0.00001   -14.43441     0.00178
  z   -10.34933   -10.35590   -29.72352     0.01981     0.00258     0.02387
 
 INTERNAL STRAIN TENSORS FROM DISPLACED ATOMS
 ============================================

 INTERNAL STRAIN TENSOR FOR ION    1 for displacements in x,y,z  (eV/Angst):
          X           Y           Z          XY          YZ          ZX
  --------------------------------------------------------------------------------
  x     0.00000     0.00000     0.00000    -6.21707     0.00000     0.00000
  y    -6.21707     6.21707     0.00000     0.00000     0.00000     0.00000
  z     0.00000     0.00000     0.00000     0.00000     0.00000     0.00000

 INTERNAL STRAIN TENSOR FOR ION    2 for displacements in x,y,z  (eV/Angst):
          X           Y           Z          XY          YZ          ZX
  --------------------------------------------------------------------------------
  x     0.00000     0.00000     0.00000     3.34892     0.00000    14.56684
  y     3.34892    -3.34892     0.00000     0.00000    14.56684     0.00000
  z    10.33290    10.33290    29.56802     0.00000     0.00000     0.00000

 INTERNAL STRAIN TENSOR FOR ION    3 for displacements in x,y,z  (eV/Angst):
          X           Y           Z          XY          YZ          ZX
  --------------------------------------------------------------------------------
  x     0.00000     0.00000     0.00000     3.34892     0.00000   -14.56684
  y     3.34892    -3.34892     0.00000     0.00000   -14.56684     0.00000
  z   -10.33290   -10.33290   -29.56802     0.00000     0.00000     0.00000


--------------------------------------------------------------------------------------------------------


 
 Eigenvectors and eigenvalues of the dynamical matrix
 ----------------------------------------------------
 
 
   1 f  =   13.843141 THz    86.979019 2PiTHz  461.757462 cm-1    57.250649 meV
             X         Y         Z           dx          dy          dz
      1.591645  0.918937  1.579025     0.000000    0.000000   -0.633040  
      0.000000  0.000000  0.015361     0.000000    0.000000    0.547385  
      0.000000  0.000000  3.142704     0.000000    0.000000    0.547385  
 
   2 f  =   12.045014 THz    75.681056 2PiTHz  401.778413 cm-1    49.814192 meV
             X         Y         Z           dx          dy          dz
      1.591645  0.918937  1.579025     0.000000    0.000000    0.000000  
      0.000000  0.000000  0.015361     0.000000    0.000000    0.707107  
      0.000000  0.000000  3.142704     0.000000    0.000000   -0.707107  
 
   3 f  =   11.313027 THz    71.081845 2PiTHz  377.361952 cm-1    46.786936 meV
             X         Y         Z           dx          dy          dz
      1.591645  0.918937  1.579025     0.000000    0.633165    0.000000  
      0.000000  0.000000  0.015361     0.000000   -0.547312    0.000000  
      0.000000  0.000000  3.142704     0.000000   -0.547312    0.000000  
 
   4 f  =   11.313027 THz    71.081845 2PiTHz  377.361952 cm-1    46.786936 meV
             X         Y         Z           dx          dy          dz
      1.591645  0.918937  1.579025    -0.633165    0.000000    0.000000  
      0.000000  0.000000  0.015361     0.547312    0.000000    0.000000  
      0.000000  0.000000  3.142704     0.547312    0.000000    0.000000  
 
   5 f  =    8.370817 THz    52.595391 2PiTHz  279.220375 cm-1    34.618927 meV
             X         Y         Z           dx          dy          dz
      1.591645  0.918937  1.579025     0.000000    0.000000    0.000000  
      0.000000  0.000000  0.015361    -0.000010   -0.707107    0.000000  
      0.000000  0.000000  3.142704     0.000010    0.707107    0.000000  
 
   6 f  =    8.370817 THz    52.595391 2PiTHz  279.220375 cm-1    34.618927 meV
             X         Y         Z           dx          dy          dz
      1.591645  0.918937  1.579025     0.000000    0.000000    0.000000  
      0.000000  0.000000  0.015361    -0.707107    0.000010    0.000000  
      0.000000  0.000000  3.142704     0.707107   -0.000010    0.000000  
 
   7 f/i=    0.001333 THz     0.008373 2PiTHz    0.044451 cm-1     0.005511 meV
             X         Y         Z           dx          dy          dz
      1.591645  0.918937  1.579025     0.000000    0.000000    0.774119  
      0.000000  0.000000  0.015361     0.000000    0.000000    0.447627  
      0.000000  0.000000  3.142704     0.000000    0.000000    0.447627  
 
   8 f/i=    0.002926 THz     0.018387 2PiTHz    0.097613 cm-1     0.012102 meV
             X         Y         Z           dx          dy          dz
      1.591645  0.918937  1.579025    -0.744214   -0.212714    0.000000  
      0.000000  0.000000  0.015361    -0.430477   -0.123041    0.000000  
      0.000000  0.000000  3.142704    -0.430477   -0.123041    0.000000  
 
   9 f/i=    0.002926 THz     0.018387 2PiTHz    0.097613 cm-1     0.012102 meV
             X         Y         Z           dx          dy          dz
      1.591645  0.918937  1.579025     0.212714   -0.744214    0.000000  
      0.000000  0.000000  0.015361     0.123041   -0.430477    0.000000  
      0.000000  0.000000  3.142704     0.123041   -0.430477    0.000000  
 


--------------------------------------------------------------------------------------------------------



 ELASTIC MODULI CONTR FROM IONIC RELAXATION (kBar)
 Direction    XX          YY          ZZ          XY          YZ          ZX
 --------------------------------------------------------------------------------
 XX        -131.5453    -91.4016   -318.9858      0.0000      0.0000      0.0000
 YY         -91.4016   -131.5453   -318.9858      0.0000      0.0000      0.0000
 ZZ        -318.9858   -318.9858   -912.7907      0.0000      0.0000      0.0000
 XY           0.0000      0.0000      0.0000    -20.0718      0.0000      0.0000
 YZ           0.0000      0.0000      0.0000      0.0000   -458.7083      0.0000
 ZX           0.0000      0.0000      0.0000      0.0000      0.0000   -458.7083
 --------------------------------------------------------------------------------


 TOTAL ELASTIC MODULI (kBar)
 Direction    XX          YY          ZZ          XY          YZ          ZX
 --------------------------------------------------------------------------------
 XX         731.2515    183.3379      8.0864      0.0000      0.0000      0.0000
 YY         183.3379    731.2515      8.0864      0.0000      0.0000      0.0000
 ZZ           8.0864      8.0864     11.9991      0.0000      0.0000      0.0000
 XY           0.0000      0.0000      0.0000    273.9568      0.0000      0.0000
 YZ           0.0000      0.0000      0.0000      0.0000    -17.4874      0.0000
 ZX           0.0000      0.0000      0.0000      0.0000      0.0000    -17.4872
 --------------------------------------------------------------------------------



--------------------------------------------------------------------------------------------------------


  LATTYP: Found a hexagonal cell.
 ALAT       =     3.1832909475
 C/A-ratio  =     5.7716005063
  
  Lattice vectors:
  
 A1 = (   3.1832909475,   0.0000000000,   0.0000000000)
 A2 = (  -1.5916454738,   2.7568108282,   0.0000000000)
 A3 = (   0.0000000000,   0.0000000000,  18.3726836446)


Analysis of symmetry for initial positions (statically):
=====================================================================
 Subroutine PRICEL returns:
 Original cell was already a primitive cell.
 

 Routine SETGRP: Setting up the symmetry group for a 
 hexagonal supercell.


 Subroutine GETGRP returns: Found 12 space group operations
 (whereof  6 operations were pure point group operations)
 out of a pool of 24 trial point group operations.


The static configuration has the point symmetry C_3v.
 The point group associated with its full space group is D_3h.


Analysis of symmetry for dynamics (positions and initial velocities):
=====================================================================
 Subroutine PRICEL returns:
 Original cell was already a primitive cell.
 

 Routine SETGRP: Setting up the symmetry group for a 
 hexagonal supercell.


 Subroutine GETGRP returns: Found 12 space group operations
 (whereof  6 operations were pure point group operations)
 out of a pool of 24 trial point group operations.


The dynamic configuration has the point symmetry C_3v.
 The point group associated with its full space group is D_3h.
 
 KPOINTS: res2                                    

Automatic generation of k-mesh.
Space group operators:
 irot       det(A)        alpha          n_x          n_y          n_z        tau_x        tau_y        tau_z
    1     1.000000     0.000000     1.000000     0.000000     0.000000     0.000000     0.000000     0.000000
    2     1.000000   120.000000     0.000000     0.000000    -1.000000     0.000000     0.000000     0.000000
    3     1.000000   120.000000     0.000000     0.000000     1.000000     0.000000     0.000000     0.000000
    4    -1.000000   180.000000     1.000000     0.000000     0.000000     0.000000     0.000000     0.000000
    5    -1.000000   180.000000     0.500000    -0.866025     0.000000     0.000000     0.000000     0.000000
    6    -1.000000   180.000000    -0.500000    -0.866025     0.000000     0.000000     0.000000     0.000000
    7    -1.000000    60.000000     0.000000     0.000000    -1.000000     0.000000     0.000000     0.171888
    8    -1.000000   180.000000     0.000000     0.000000     1.000000     0.000000     0.000000     0.171888
    9    -1.000000    60.000000     0.000000     0.000000     1.000000     0.000000     0.000000     0.171888
   10     1.000000   180.000000     0.866025    -0.500000     0.000000     0.000000     0.000000     0.171888
   11     1.000000   180.000000     0.000000     1.000000     0.000000     0.000000     0.000000     0.171888
   12     1.000000   180.000000     0.866025     0.500000     0.000000     0.000000     0.000000     0.171888
 
 Subroutine IBZKPT returns following result:
 ===========================================
 
 Found     27 irreducible k-points:
 
 Following reciprocal coordinates:
            Coordinates               Weight
  0.000000  0.000000  0.000000      1.000000
  0.066667  0.000000  0.000000      6.000000
  0.133333  0.000000  0.000000      6.000000
  0.200000  0.000000  0.000000      6.000000
  0.266667  0.000000  0.000000      6.000000
  0.333333  0.000000  0.000000      6.000000
  0.400000  0.000000  0.000000      6.000000
  0.466667  0.000000  0.000000      6.000000
  0.066667  0.066667  0.000000      6.000000
  0.133333  0.066667  0.000000     12.000000
  0.200000  0.066667  0.000000     12.000000
  0.266667  0.066667  0.000000     12.000000
  0.333333  0.066667  0.000000     12.000000
  0.400000  0.066667  0.000000     12.000000
  0.466667  0.066667  0.000000      6.000000
  0.133333  0.133333  0.000000      6.000000
  0.200000  0.133333  0.000000     12.000000
  0.266667  0.133333  0.000000     12.000000
  0.333333  0.133333  0.000000     12.000000
  0.400000  0.133333  0.000000     12.000000
  0.200000  0.200000  0.000000      6.000000
  0.266667  0.200000  0.000000     12.000000
  0.333333  0.200000  0.000000     12.000000
  0.400000  0.200000  0.000000      6.000000
  0.266667  0.266667  0.000000      6.000000
  0.333333  0.266667  0.000000     12.000000
  0.333333  0.333333  0.000000      2.000000
 
 Following cartesian coordinates:
            Coordinates               Weight
  0.000000  0.000000  0.000000      1.000000
  0.020943  0.012091  0.000000      6.000000
  0.041885  0.024183  0.000000      6.000000
  0.062828  0.036274  0.000000      6.000000
  0.083771  0.048365  0.000000      6.000000
  0.104713  0.060456  0.000000      6.000000
  0.125656  0.072548  0.000000      6.000000
  0.146599  0.084639  0.000000      6.000000
  0.020943  0.036274  0.000000      6.000000
  0.041885  0.048365  0.000000     12.000000
  0.062828  0.060456  0.000000     12.000000
  0.083771  0.072548  0.000000     12.000000
  0.104713  0.084639  0.000000     12.000000
  0.125656  0.096730  0.000000     12.000000
  0.146599  0.108821  0.000000      6.000000
  0.041885  0.072548  0.000000      6.000000
  0.062828  0.084639  0.000000     12.000000
  0.083771  0.096730  0.000000     12.000000
  0.104713  0.108821  0.000000     12.000000
  0.125656  0.120913  0.000000     12.000000
  0.062828  0.108821  0.000000      6.000000
  0.083771  0.120913  0.000000     12.000000
  0.104713  0.133004  0.000000     12.000000
  0.125656  0.145095  0.000000      6.000000
  0.083771  0.145095  0.000000      6.000000
  0.104713  0.157186  0.000000     12.000000
  0.104713  0.181369  0.000000      2.000000
 
 TETIRR: Found    118 inequivalent tetrahedra from     1350
     LOOP+:  cpu time   17.68: real time   17.84
    4ORBIT:  cpu time    0.00: real time    0.00
 BZINTS: Fermi energy: -2.212548; 18.000000 electrons
         Band energy:-130.050696;  BLOECHL correction:  0.000000

 total amount of memory used by VASP on root node    89920. kBytes
========================================================================

   base      :      30000. kBytes
   nonl-proj :      42437. kBytes
   fftplans  :       3278. kBytes
   grid      :       9442. kBytes
   one-center:         46. kBytes
   wavefun   :       4717. kBytes
 
  
  
 General timing and accounting informations for this job:
 ========================================================
  
                  Total CPU time used (sec):     1854.904
                            User time (sec):     1737.557
                          System time (sec):      117.347
                         Elapsed time (sec):     1860.496
  
                   Maximum memory used (kb):           0.
                   Average memory used (kb):           0.
  
                          Minor page faults:     50381532
                          Major page faults:           54
                 Voluntary context switches:         5664
